variables = x, y, z
zone i = 21, j = 10
 0.1273272 0.13848074 0.09333856
 0.12117086 0.14475995 0.083267964
 0.09820433 0.1559171 0.059823547
 0.062190875 0.16547298 0.022532009
 0.016142245 0.16537921 -0.023210287
 -0.03717403 0.15219371 -0.06874644
 -0.09376299 0.12928335 -0.10571098
 -0.14751339 0.10366453 -0.13092999
 -0.19306788 0.0823632 -0.14527664
 -0.22519954 0.07069668 -0.15129764
 -0.24253315 0.07129893 -0.15101478
 -0.24403177 0.086841516 -0.14264484
 -0.22767231 0.11310535 -0.12286651
 -0.19543561 0.14073282 -0.089907005
 -0.14904839 0.16044638 -0.046324473
 -0.09257105 0.16699998 -7.06912E-5
 -0.030717496 0.16219923 0.03975435
 0.029726833 0.15250205 0.068059705
 0.0804314 0.14390323 0.084739946
 0.11395514 0.13869129 0.093025394
 0.1273272 0.13848074 0.09333856
 0.13547508 0.26820296 0.15872061
 0.12942241 0.27507982 0.14647917
 0.10611498 0.28961402 0.115103304
 0.0697701 0.30483624 0.06480679
 0.023936588 0.31164858 4.752066E-4
 -0.028406935 0.3038618 -0.06923199
 -0.083553 0.28158128 -0.1335554
 -0.13557614 0.25094894 -0.18479633
 -0.17931911 0.22095005 -0.21978657
 -0.20998858 0.20052345 -0.2385695
 -0.22661951 0.19521698 -0.24293083
 -0.2295541 0.20905654 -0.23112857
 -0.215972 0.23776655 -0.20147488
 -0.18677048 0.27102295 -0.15385583
 -0.1431228 0.29807094 -0.09098775
 -0.08855392 0.31092653 -0.021207381
 -0.027447417 0.3084393 0.044612188
 0.033674788 0.29601055 0.09748238
 0.086125314 0.28161785 0.13347825
 0.12127323 0.27105254 0.15380369
 0.13547508 0.26820296 0.15872061
 0.13906403 0.39725652 0.21541448
 0.13314675 0.40440732 0.20167018
 0.11052147 0.42082623 0.16468585
 0.07539065 0.43943927 0.10540055
 0.031567555 0.45098338 0.028812028
 -0.017790139 0.44838494 -0.0562769
 -0.06922382 0.43022388 -0.13828793
 -0.11727619 0.40149477 -0.20740803
 -0.1572144 0.37114817 -0.25780845
 -0.18487222 0.3489989 -0.28708172
 -0.19955494 0.34181684 -0.29559666
 -0.20245837 0.3536839 -0.2812896
 -0.19056892 0.38056457 -0.24369396
 -0.1641227 0.41253832 -0.18446755
 -0.12405382 0.43890372 -0.10760884
 -0.07344252 0.45135716 -0.022200463
 -0.016307566 0.44787988 0.06016447
 0.041428413 0.43311185 0.12895842
 0.09155703 0.41529793 0.17816783
 0.1253926 0.4016504 0.20710652
 0.13906403 0.39725652 0.21541448
 0.13986522 0.5203686 0.26398635
 0.13420564 0.5274899 0.24945281
 0.11298489 0.54467887 0.20927784
 0.08015029 0.56519586 0.14500321
 0.03952567 0.5802211 0.06177177
 -0.005716103 0.58264047 -0.031660616
 -0.05238652 0.5702425 -0.12367584
 -0.095597744 0.5468334 -0.2035817
 -0.13112512 0.52041084 -0.26390308
 -0.15541539 0.5002574 -0.30035785
 -0.16796164 0.4931967 -0.31181613
 -0.17035282 0.5028621 -0.29597637
 -0.15967831 0.5256752 -0.25325465
 -0.13584176 0.55283415 -0.18667261
 -0.099668905 0.5746085 -0.10147596
 -0.053872984 0.58345467 -0.0072738626
 -0.002092105 0.57739204 0.084206246
 0.050433412 0.5605556 0.16201776
 0.096298836 0.5407902 0.21913059
 0.12736952 0.525577 0.2534583
 0.13986522 0.5203686 0.26398635
 0.13614021 0.6346502 0.30107155
 0.13099088 0.64136434 0.28649032
 0.112052366 0.65813863 0.24551673
 0.082784496 0.6789425 0.18017213
 0.046698883 0.69589776 0.09566202
 0.006771208 0.702442 4.346121E-4
 -0.034131896 0.69606286 -0.09445324
 -0.071769975 0.67942667 -0.17833768
 -0.102474965 0.65907407 -0.24299444
 -0.12326097 0.6429166 -0.28298965
 -0.1336916 0.6370286 -0.29600587
 -0.13535023 0.644339 -0.2797359
 -0.12571846 0.66190666 -0.23516907
 -0.1046175 0.68251276 -0.16613616
 -0.072839625 0.69802225 -0.07867557
 -0.032759666 0.7022215 0.017602269
 0.012409928 0.69354826 0.11142572
 0.05817073 0.67564046 0.19218455
 0.098168746 0.65548104 0.25252622
 0.1252936 0.64007586 0.28935754
 0.13614021 0.6346502 0.30107155
 0.12702869 0.73870933 0.32018557
 0.122609176 0.7445264 0.30641583
 0.1066445 0.7594283 0.26735526
 0.08196609 0.778489 0.20534155
 0.051547125 0.79528314 0.12543891
 0.017983787 0.80433613 0.035406344
 -0.016253466 0.8032436 -0.05486296
 -0.047641087 0.7936194 -0.13556716
 -0.07312012 0.78022957 -0.19862537
 -0.09024975 0.76906407 -0.23822407
 -0.09861072 0.76487476 -0.2513501
 -0.0995363 0.7697891 -0.2358707
 -0.09105143 0.7816237 -0.19306625
 -0.07303115 0.7950295 -0.12703677
 -0.046240605 0.8039128 -0.043981493
 -0.0127038555 0.8037334 0.047147483
 0.024854371 0.7935124 0.13619202
 0.06272769 0.77627605 0.21355505
 0.09575504 0.75771457 0.2721744
 0.11813497 0.74370766 0.3083977
 0.12702869 0.73870933 0.32018557
 0.11479324 0.8279745 0.32204247
 0.11116707 0.83260834 0.30986524
 0.09836077 0.8447265 0.27511868
 0.078559905 0.8606752 0.22020744
 0.054142896 0.87568414 0.14976789
 0.027254382 0.88559455 0.070536286
 -6.6926375E-5 0.88835216 -0.009143787
 -0.025029665 0.88470966 -0.08088245
 -0.045202184 0.87770355 -0.1374394
 -0.058671273 0.87132925 -0.17331615
 -0.06504084 0.86884946 -0.18534756
 -0.06531834 0.87164825 -0.1717044
 -0.058076542 0.87827957 -0.13370918
 -0.043284755 0.88520783 -0.07523399
 -0.02166224 0.88839686 -0.0020203516
 0.005122026 0.88495344 0.07817001
 0.034853015 0.8744629 0.1567411
 0.064616665 0.85929364 0.22553833
 0.09044873 0.8436974 0.27825835
 0.107913285 0.83212453 0.31116217
 0.11479324 0.8279745 0.32204247
 0.09777276 0.90196383 0.29751122
 0.09507509 0.90510374 0.28781754
 0.085786626 0.91346776 0.2600545
 0.07137865 0.92478144 0.2164046
 0.053502712 0.93606496 0.16072981
 0.033751037 0.94465804 0.09835046
 0.0136939045 0.9490957 0.03562338
 -0.004628434 0.949531 -0.021037465
 -0.019419527 0.94747293 -0.0659295
 -0.029264048 0.94504297 -0.09458027
 -0.033748332 0.9440263 -0.104240075
 -0.03343372 0.9451446 -0.093559705
 -0.0275188 0.9476284 -0.06365666
 -0.016127773 0.9496 -0.017651485
 6.945618E-5 0.9489284 0.03983189
 0.019768132 0.94418204 0.1028198
 0.04129215 0.9353594 0.16478601
 0.06252785 0.924054 0.21949005
 0.08075209 0.9129489 0.26187015
 0.09300285 0.9048642 0.2885697
 0.09777276 0.90196383 0.29751122
 0.0710713 0.9580281 0.23881377
 0.06965097 0.95952314 0.23273419
 0.06448787 0.9635584 0.21541862
 0.056483984 0.9692095 0.18836896
 0.046586342 0.9752449 0.15410161
 0.03564719 0.98051864 0.11590123
 0.024480112 0.98429227 0.07757974
 0.014234295 0.98641014 0.042952225
 0.0059163882 0.98722404 0.015446699
 3.2043437E-4 0.98734254 -0.0021548697
 -0.002391409 0.9873115 -0.008116011
 -0.0026565327 0.98734367 -0.0015361498
 1.3322882E-4 0.9872006 0.016878111
 0.006023783 0.98631406 0.04510492
 0.0147533165 0.98407537 0.08028403
 0.025665825 0.9801713 0.11880278
 0.037872106 0.9748189 0.15677372
 0.05017001 0.9688047 0.19043973
 0.06089776 0.96328086 0.21665612
 0.06817349 0.9593977 0.23325084
 0.0710713 0.9580281 0.23881377
 0.040712003 0.9896402 0.14357002
 0.04015591 0.9897731 0.14265057
 0.038577013 0.9901555 0.13997176
 0.036359478 0.9907459 0.1357297
 0.034094788 0.99148345 0.13023253
 0.032133073 0.99228466 0.1239803
 0.030572329 0.9930598 0.11761064
 0.029519105 0.99373513 0.11176069
 0.029003209 0.99425626 0.10702549
 0.028949127 0.9945871 0.103906125
 0.029097077 0.99470365 0.102784194
 0.028949127 0.9945871 0.103906125
 0.029003209 0.99425626 0.10702549
 0.029519105 0.99373513 0.11176069
 0.030572329 0.9930598 0.11761064
 0.032133073 0.99228466 0.1239803
 0.034094788 0.99148345 0.13023253
 0.036359478 0.9907459 0.1357297
 0.038577013 0.9901555 0.13997176
 0.04015591 0.9897731 0.14265057
 0.040712003 0.9896402 0.14357002
zone i = 32, j = 5
 -0.692 0.0 -0.0
 -0.6219224 0.09912506 -0.0038506172
 -0.5535702 0.13184234 0.0013563234
 -0.4886267 0.15032779 0.008570665
 -0.42869088 0.16021246 0.016077727
 -0.37523863 0.16428371 0.022887377
 -0.3295861 0.16455783 0.028455598
 -0.29285738 0.16374964 0.03278803
 -0.2659569 0.16308533 0.03594683
 -0.249547 0.16265015 0.037867248
 -0.24403177 0.1624988 0.03851152
 -0.24253315 0.16565616 0.021143181
 -0.22519954 0.16573909 0.020483004
 -0.19306788 0.16361792 0.03343912
 -0.14751339 0.15655592 0.05813124
 -0.09376299 0.14048786 0.090289295
 -0.03717403 0.112412184 0.123501
 0.016142245 0.073179275 0.1501126
 0.062190875 0.029704742 0.16433693
 0.09820433 -0.008714548 0.16677247
 0.12117086 -0.034459263 0.16340612
 0.1273272 -0.045977347 0.1605462
 0.13284244 -0.049349215 0.15954201
 0.14925233 -0.059246484 0.15613729
 0.17615283 -0.07494995 0.1492364
 0.21288152 -0.09508271 0.13728903
 0.25853407 -0.119345725 0.12061419
 0.31198633 -0.14145902 0.093999766
 0.37192214 -0.15515403 0.057967532
 0.43686566 -0.15444101 0.016975543
 0.5052178 -0.135165 -0.0206524
 0.57529545 -0.0 -0.0
 -0.692 0.0 -0.0
 -0.6219224 0.09308363 -0.034293484
 -0.5535702 0.12580864 -0.039451588
 -0.4886267 0.1456187 -0.038302656
 -0.42869088 0.1573394 -0.034217544
 -0.37523863 0.16331568 -0.02899927
 -0.3295861 0.16529706 -0.023788283
 -0.29285738 0.16586722 -0.019418154
 -0.2659569 0.16621155 -0.016208673
 -0.249547 0.1663911 -0.014247768
 -0.24403177 0.16644625 -0.0135882655
 -0.23881793 0.16596344 -0.018577818
 -0.21775855 0.16679211 -0.008330221
 -0.18206301 0.16645342 0.013500244
 -0.1337778 0.16110268 0.04398778
 -0.093465 0.15191503 0.06936008
 -0.051023286 0.13551192 0.09759876
 0.00442731 0.10407148 0.13060676
 0.054074865 0.068382055 0.15235777
 0.0937611 0.036525127 0.16295677
 0.11936693 0.014863065 0.16633727
 0.1273272 0.0058844523 0.16689628
 0.13284244 0.0023673016 0.16698322
 0.14925233 -0.008097679 0.16680355
 0.17615283 -0.025165053 0.16509306
 0.21288152 -0.04800439 0.15995179
 0.25853407 -0.076232694 0.15159078
 0.31198633 -0.105487995 0.13311234
 0.37192214 -0.1296473 0.10307564
 0.43686566 -0.1416364 0.0638696
 0.5052178 -0.1349315 0.022126686
 0.57529545 -0.0 -0.0
 -0.692 0.0 -0.0
 -0.6219224 0.077930525 -0.061379466
 -0.5535702 0.107459925 -0.0763977
 -0.4886267 0.12665544 -0.08142664
 -0.42869088 0.13906485 -0.08116336
 -0.37523863 0.14636117 -0.07804727
 -0.3295861 0.14985585 -0.0737036
 -0.29285738 0.15174855 -0.069723554
 -0.2659569 0.15306781 -0.06677756
 -0.249547 0.15384454 -0.06496811
 -0.24403177 0.1541008 -0.06435793
 -0.23510273 0.15688114 -0.057247758
 -0.21031758 0.1628734 -0.036895137
 -0.17105813 0.16686814 -0.006634966
 -0.12004222 0.16437449 0.029496212
 -0.09316702 0.1602449 0.04701672
 -0.06487254 0.1527589 0.06748124
 -0.007287625 0.12998268 0.104849905
 0.045958854 0.103039585 0.13142239
 0.089317866 0.079065345 0.14709748
 0.117563 0.062884346 0.15470798
 0.1273272 0.05717024 0.1569094
 0.13284244 0.05385209 0.15807894
 0.14925233 0.043843783 0.16114193
 0.17615283 0.027083175 0.16478926
 0.21288152 0.0037729389 0.16695736
 0.25853407 -0.025657471 0.16772859
 0.31198633 -0.059191067 0.15919493
 0.37192214 -0.09144979 0.13809398
 0.43686566 -0.114967436 0.104511656
 0.5052178 -0.121489964 0.06273986
 0.57529545 -0.0 0.0
 -0.692 0.0 -0.0
 -0.6219224 0.055149034 -0.0824572
 -0.5535702 0.07859227 -0.10586547
 -0.4886267 0.09529427 -0.116580024
 -0.42869088 0.10717767 -0.12016435
 -0.37523863 0.11507982 -0.11945546
 -0.3295861 0.119745724 -0.116404295
 -0.29285738 0.12277569 -0.11320392
 -0.2659569 0.124940746 -0.11080979
 -0.249547 0.1262386 -0.109328926
 -0.24403177 0.12667087 -0.1088278
 -0.23138753 0.13892311 -0.09267884
 -0.2028766 0.1540998 -0.0643603
 -0.16005325 0.16485603 -0.026673682
 -0.106306635 0.16634545 0.014771209
 -0.092869036 0.16530763 0.023714766
 -0.07872179 0.16340823 0.034449205
 -0.01900256 0.14967272 0.07407479
 0.037842844 0.13163999 0.102761425
 0.08487463 0.115762085 0.12036668
 0.115759075 0.105400994 0.12953621
 0.1273272 0.1028598 0.13156314
 0.13284244 0.10006546 0.13370079
 0.14925233 0.09149351 0.13970661
 0.17615283 0.07668031 0.14835474
 0.21288152 0.055180945 0.15762
 0.25853407 0.02742928 0.16744797
 0.31198633 -0.007100109 0.16969442
 0.37192214 -0.04430053 0.15959471
 0.43686566 -0.07704464 0.13492338
 0.5052178 -0.09615614 0.097211614
 0.57529545 -0.0 0.0
 -0.692 0.0 -0.0
 -0.6219224 0.02696917 -0.09546344
 -0.5535702 0.04203146 -0.1249704
 -0.4886267 0.054605022 -0.14032175
 -0.42869088 0.06479919 -0.14740281
 -0.37523863 0.072533645 -0.1491705
 -0.3295861 0.077914044 -0.14771053
 -0.29285738 0.08178469 -0.1456031
 -0.2659569 0.0845836 -0.14399518
 -0.249547 0.08627555 -0.14298786
 -0.24403177 0.086841516 -0.14264484
 -0.22767231 0.11310535 -0.122866504
 -0.19543561 0.14073282 -0.089907005
 -0.14904839 0.16044638 -0.046324473
 -0.09257105 0.16699998 -7.06912E-5
 -0.09257105 0.16699998 -7.06912E-5
 -0.09257105 0.16699998 -7.06912E-5
 -0.030717496 0.16219923 0.03975435
 0.029726833 0.15250205 0.068059705
 0.0804314 0.14390323 0.084739946
 0.11395514 0.13869129 0.093025394
 0.1273272 0.13848074 0.09333855
 0.13284244 0.13648373 0.09623508
 0.14925233 0.13018721 0.104595825
 0.17615283 0.11877145 0.11739822
 0.21288152 0.10118745 0.13285367
 0.25853407 0.07783107 0.15077636
 0.31198633 0.045685858 0.16358304
 0.37192214 0.007185172 0.16547321
 0.43686566 -0.031580195 0.15212786
 0.5052178 -0.061409883 0.122167625
 0.57529545 -0.0 0.0
zone i = 21, j = 10
 0.1273272 -0.045977343 0.16054621
 0.12117086 -0.034459256 0.16340612
 0.09820433 -0.008714543 0.16677245
 0.062190875 0.029704751 0.16433693
 0.016142245 0.07317928 0.1501126
 -0.03717403 0.11241219 0.123501
 -0.09376299 0.14048788 0.09028929
 -0.14751339 0.15655592 0.058131237
 -0.19306788 0.16361792 0.03343911
 -0.22519954 0.16573909 0.020482996
 -0.24253315 0.16565616 0.021143178
 -0.24403177 0.1624988 0.03851151
 -0.22767231 0.15180446 0.06960174
 -0.19543561 0.12899548 0.10606208
 -0.14904839 0.09363785 0.13827853
 -0.09257105 0.051673062 0.15880458
 -0.030717496 0.012313684 0.1665454
 0.029726833 -0.017602902 0.16606967
 0.0804314 -0.036123935 0.16304618
 0.11395514 -0.04561444 0.16064969
 0.1273272 -0.045977343 0.16054621
 0.13547508 -0.068073 0.30412355
 0.12942241 -0.054305635 0.306881
 0.10611498 -0.019974094 0.3110082
 0.0697701 0.032564662 0.3099429
 0.023936588 0.095852755 0.29654226
 -0.028406935 0.159742 0.2675959
 -0.083553 0.21403214 0.22652884
 -0.13557614 0.25329924 0.18156141
 -0.17931911 0.27730677 0.1422182
 -0.20998858 0.28885823 0.11698711
 -0.22661951 0.2913663 0.11059263
 -0.2295541 0.28441834 0.12740193
 -0.215972 0.2650879 0.16387026
 -0.18677048 0.23007628 0.21021408
 -0.1431228 0.17864348 0.25536555
 -0.08855392 0.116251 0.28915527
 -0.027447417 0.052884277 0.30712914
 0.033674788 -0.0012389641 0.31164646
 0.086125314 -0.03992066 0.30908155
 0.12127323 -0.06251616 0.30531424
 0.13547508 -0.068073 0.30412355
 0.13906403 -0.08211233 0.44438013
 0.13314675 -0.06683101 0.44693375
 0.11052147 -0.02658309 0.45112026
 0.07539065 0.035552327 0.45050216
 0.031567555 0.11195966 0.4378141
 -0.017790139 0.19208108 0.40904891
 -0.06922382 0.26446614 0.3664339
 -0.11727619 0.32132545 0.31775162
 -0.1572144 0.3598815 0.2733157
 -0.18487222 0.38087752 0.24320455
 -0.19955494 0.38675633 0.23374274
 -0.20245837 0.37681666 0.2494501
 -0.19056892 0.34936765 0.28663284
 -0.1641227 0.30292043 0.33534363
 -0.12405382 0.2379708 0.38416928
 -0.07344252 0.16059093 0.42240584
 -0.016307566 0.08118268 0.44455093
 0.041428413 0.0111921765 0.4517642
 0.09155703 -0.041113563 0.4500287
 0.1253926 -0.0728532 0.44599167
 0.13906403 -0.08211233 0.44438013
 0.13986522 -0.0902632 0.5764762
 0.13420564 -0.07424038 0.5787579
 0.11298489 -0.030720025 0.5826908
 0.08015029 0.03674887 0.5823417
 0.03952567 0.12054974 0.5709116
 -0.005716103 0.21015684 0.5443404
 -0.05238652 0.29383734 0.5041149
 -0.095597744 0.36259854 0.45715925
 -0.13112512 0.41180253 0.4133896
 -0.15541539 0.44024533 0.38295737
 -0.16796164 0.44896093 0.37270147
 -0.17035282 0.4368832 0.38678855
 -0.15967831 0.40330207 0.42168683
 -0.13584176 0.34837136 0.46809152
 -0.099668905 0.27407315 0.51512736
 -0.053872984 0.18721525 0.55265063
 -0.002092105 0.09833905 0.5751536
 0.050433412 0.01913315 0.58318627
 0.096298836 -0.041292213 0.5820371
 0.12736952 -0.07864093 0.5781764
 0.13986522 -0.0902632 0.5764762
 0.13614021 -0.09021837 0.6966244
 0.13099088 -0.07427601 0.6985041
 0.112052366 -0.030124266 0.7017959
 0.082784496 0.038450893 0.70138896
 0.046698883 0.124064244 0.6913993
 0.006771208 0.21665317 0.6681963
 -0.034131896 0.30492562 0.6328075
 -0.071769975 0.3795636 0.5910638
 -0.102474965 0.43476653 0.5517273
 -0.12326097 0.46781132 0.5240014
 -0.1336916 0.47837096 0.5143793
 -0.13535023 0.46515635 0.5263597
 -0.12571846 0.42819947 0.5568394
 -0.1046175 0.3689129 0.5977693
 -0.072839625 0.29052565 0.6395465
 -0.032759666 0.20025763 0.67329174
 0.012409928 0.10834604 0.694036
 0.05817073 0.026006015 0.70196056
 0.098168746 -0.03761193 0.70143443
 0.1252936 -0.07740106 0.6981647
 0.13614021 -0.09021837 0.6966244
 0.12702869 -0.07624084 0.8014971
 0.122609176 -0.061347462 0.80277437
 0.1066445 -0.019593708 0.80487657
 0.08196609 0.045274913 0.80384105
 0.051547125 0.12645651 0.79512197
 0.017983787 0.2148801 0.77591026
 -0.016253466 0.3003937 0.74697644
 -0.047641087 0.3741739 0.7128843
 -0.07312012 0.43000814 0.68066376
 -0.09024975 0.4642184 0.65780807
 -0.09861072 0.47540745 0.6497677
 -0.0995363 0.46220428 0.65922487
 -0.09105143 0.42515194 0.6837076
 -0.07303115 0.36649677 0.7168615
 -0.046240605 0.2902516 0.7509755
 -0.0127038555 0.20352736 0.7789653
 0.024854371 0.115682505 0.7967608
 0.06272769 0.036779568 0.80427456
 0.09575504 -0.024706546 0.8047359
 0.11813497 -0.06348535 0.80260813
 0.12702869 -0.07624084 0.8014971
 0.11479324 -0.050422393 0.8869671
 0.11116707 -0.037409224 0.8876112
 0.09836077 -6.185672E-4 0.88839895
 0.078559905 0.05653355 0.8865986
 0.054142896 0.12816355 0.8791059
 0.027254382 0.20657977 0.86404735
 -6.6926375E-5 0.28321218 0.8420475
 -0.025029665 0.35031408 0.81641483
 -0.045202184 0.40193796 0.7922746
 -0.058671273 0.434089 0.7751257
 -0.06504084 0.44476527 0.7690494
 -0.06531834 0.4326547 0.7759272
 -0.058076542 0.3985683 0.79397506
 -0.043284755 0.34509605 0.8186341
 -0.02166224 0.2764512 0.84429127
 0.005122026 0.19912155 0.86579657
 0.034853015 0.121154256 0.8800993
 0.064616665 0.05103664 0.886932
 0.09044873 -0.0039225766 0.8883905
 0.107913285 -0.03879219 0.88755184
 0.11479324 -0.050422393 0.8869671
 0.09777276 -0.004227833 0.9497546
 0.09507509 0.0059616934 0.94974536
 0.085786626 0.034950536 0.9491207
 0.07137865 0.079960175 0.9463921
 0.053502712 0.13639684 0.93991894
 0.033751037 0.19837855 0.9288151
 0.0136939045 0.25940686 0.91365194
 -0.004628434 0.31342903 0.89655674
 -0.019419527 0.3554879 0.880727
 -0.029264048 0.38198552 0.8695623
 -0.033748332 0.39085838 0.8656104
 -0.03343372 0.38104632 0.8699744
 -0.0275188 0.35337436 0.88157713
 -0.016127773 0.31023008 0.89766866
 6.945618E-5 0.25535262 0.91479325
 0.019768132 0.19398086 0.9297435
 0.04129215 0.13232115 0.94050133
 0.06252785 0.07680095 0.9466537
 0.08075209 0.03306342 0.94918835
 0.09300285 0.00517233 0.94974995
 0.09777276 -0.004227833 0.9497546
 0.0710713 0.068921566 0.98493636
 0.06965097 0.07516559 0.98447955
 0.06448787 0.09288063 0.9829665
 0.056483984 0.12035268 0.97998226
 0.046586342 0.1548079 0.975133
 0.03564719 0.1927683 0.9683441
 0.024480112 0.23038033 0.96009105
 0.014234295 0.26396748 0.95140475
 0.0059163882 0.29037833 0.94367915
 3.2043437E-4 0.307155 0.93835264
 -0.002391409 0.3128148 0.936481
 -0.0026565327 0.30656692 0.9385449
 1.3322882E-4 0.28900972 0.9440992
 0.006023783 0.26189047 0.95197856
 0.0147533165 0.22774136 0.9607204
 0.025665825 0.18990144 0.9689104
 0.037872106 0.15213494 0.9755536
 0.05017001 0.11825818 0.9802372
 0.06089776 0.09161794 0.983085
 0.06817349 0.07463545 0.98451984
 0.0710713 0.068921566 0.98493636
 0.040712003 0.16927242 0.9855693
 0.04015591 0.17018795 0.98541164
 0.038577013 0.17285383 0.9849475
 0.036359478 0.1770707 0.98419815
 0.034094788 0.18252674 0.98320085
 0.032133073 0.18872055 0.9820308
 0.030572329 0.195018 0.9807997
 0.029519105 0.2007903 0.9796342
 0.029003209 0.2054548 0.9786666
 0.028949127 0.20852372 0.97801733
 0.029097077 0.20962675 0.9777815
 0.028949127 0.20852372 0.97801733
 0.029003209 0.2054548 0.9786666
 0.029519105 0.2007903 0.9796342
 0.030572329 0.195018 0.9807997
 0.032133073 0.18872055 0.9820308
 0.034094788 0.18252674 0.98320085
 0.036359478 0.1770707 0.98419815
 0.038577013 0.17285383 0.9849475
 0.04015591 0.17018795 0.98541164
 0.040712003 0.16927242 0.9855693
zone i = 32, j = 5
 -0.692 0.0 0.0
 -0.6219224 0.034293484 0.09308363
 -0.5535702 0.039451584 0.12580866
 -0.4886267 0.038302656 0.1456187
 -0.42869088 0.034217544 0.1573394
 -0.37523863 0.028999267 0.16331567
 -0.3295861 0.023788285 0.16529706
 -0.29285738 0.01941815 0.16586722
 -0.2659569 0.01620867 0.16621155
 -0.249547 0.014247769 0.16639112
 -0.24403177 0.013588261 0.16644625
 -0.24253315 0.031082211 0.16408198
 -0.22519954 0.0317357 0.16395684
 -0.19306788 0.018758228 0.16594315
 -0.14751339 -0.0069076545 0.16685706
 -0.09376299 -0.042457085 0.16151282
 -0.03717403 -0.08271916 0.14507425
 0.016142245 -0.12015192 0.11598497
 0.062190875 -0.14711444 0.07903379
 0.09820433 -0.16130298 0.0432475
 0.12117086 -0.16605695 0.01772256
 0.1273272 -0.16689628 0.0058844485
 0.13284244 -0.16698322 0.0023672997
 0.14925233 -0.16680355 -0.008097679
 0.17615283 -0.16509306 -0.025165057
 0.21288152 -0.15995179 -0.048004385
 0.25853407 -0.15159076 -0.076232694
 0.31198633 -0.13311233 -0.105487995
 0.37192214 -0.10307563 -0.1296473
 0.43686566 -0.063869596 -0.1416364
 0.5052178 -0.022126684 -0.1349315
 0.57529545 -0.0 -0.0
 -0.692 -0.0 -0.0
 -0.6219224 0.061379466 0.077930525
 -0.5535702 0.0763977 0.10745992
 -0.4886267 0.08142665 0.12665544
 -0.42869088 0.08116336 0.13906485
 -0.37523863 0.07804727 0.14636119
 -0.3295861 0.0737036 0.14985587
 -0.29285738 0.069723554 0.15174857
 -0.2659569 0.06677756 0.15306781
 -0.249547 0.06496811 0.15384454
 -0.24403177 0.06435793 0.15410079
 -0.23881793 0.06895408 0.15209974
 -0.21775855 0.05946411 0.15605454
 -0.18206301 0.038597442 0.16247842
 -0.1337778 0.007948602 0.16681074
 -0.093465 -0.019021027 0.16591321
 -0.051023286 -0.05094645 0.15903917
 0.00442731 -0.092054546 0.13933757
 0.054074865 -0.12376963 0.11211634
 0.0937611 -0.14369422 0.08509387
 0.11936693 -0.15360321 0.065536655
 0.1273272 -0.1569094 0.057170235
 0.13284244 -0.15807894 0.053852092
 0.14925233 -0.16114193 0.043843783
 0.17615283 -0.16478926 0.027083175
 0.21288152 -0.16695736 0.003772935
 0.25853407 -0.16772859 -0.025657473
 0.31198633 -0.15919495 -0.05919107
 0.37192214 -0.13809398 -0.09144978
 0.43686566 -0.10451166 -0.114967436
 0.5052178 -0.06273986 -0.121489964
 0.57529545 -0.0 -0.0
 -0.692 -0.0 -0.0
 -0.6219224 0.0824572 0.055149037
 -0.5535702 0.10586547 0.07859227
 -0.4886267 0.116580024 0.09529427
 -0.42869088 0.12016434 0.107177675
 -0.37523863 0.11945545 0.11507981
 -0.3295861 0.116404295 0.119745724
 -0.29285738 0.11320392 0.12277569
 -0.2659569 0.11080979 0.124940746
 -0.249547 0.10932892 0.1262386
 -0.24403177 0.1088278 0.12667088
 -0.23510273 0.10292479 0.1315123
 -0.21031758 0.08542001 0.14350058
 -0.17105813 0.057875317 0.1566507
 -0.12004222 0.022741945 0.16544425
 -0.09316702 0.0048028375 0.16693093
 -0.06487254 -0.01697338 0.16613519
 -0.007287625 -0.05955133 0.15602127
 0.045958854 -0.09314913 0.13860822
 0.089317866 -0.115465485 0.12065123
 0.117563 -0.1277037 0.10761396
 0.1273272 -0.13156314 0.102859795
 0.13284244 -0.13370079 0.100065455
 0.14925233 -0.13970661 0.09149351
 0.17615283 -0.14835474 0.07668031
 0.21288152 -0.15761998 0.05518094
 0.25853407 -0.16744797 0.027429279
 0.31198633 -0.16969442 -0.007100111
 0.37192214 -0.15959471 -0.044300534
 0.43686566 -0.13492338 -0.07704465
 0.5052178 -0.097211614 -0.09615614
 0.57529545 -0.0 -0.0
 -0.692 -0.0 -0.0
 -0.6219224 0.09546345 0.026969172
 -0.5535702 0.12497039 0.04203146
 -0.4886267 0.14032175 0.054605026
 -0.42869088 0.14740281 0.06479919
 -0.37523863 0.14917052 0.072533645
 -0.3295861 0.14771053 0.077914044
 -0.29285738 0.1456031 0.08178468
 -0.2659569 0.14399518 0.0845836
 -0.249547 0.14298786 0.08627555
 -0.24403177 0.14264484 0.086841516
 -0.23138753 0.13107242 0.10348439
 -0.2028766 0.10882974 0.1266692
 -0.16005325 0.07631149 0.14854479
 -0.106306635 0.037355315 0.16276848
 -0.092869036 0.028528783 0.16454516
 -0.07872179 0.01773278 0.16605586
 -0.01900256 -0.024197899 0.16523758
 0.037842844 -0.05705293 0.1569521
 0.08487463 -0.07870306 0.14729163
 0.115759075 -0.090625554 0.14027119
 0.1273272 -0.09333856 0.13848074
 0.13284244 -0.09623508 0.13648373
 0.14925233 -0.10459583 0.13018721
 0.17615283 -0.117398225 0.11877144
 0.21288152 -0.13285367 0.10118745
 0.25853407 -0.15077637 0.07783107
 0.31198633 -0.16358304 0.045685854
 0.37192214 -0.16547321 0.0071851714
 0.43686566 -0.15212788 -0.03158019
 0.5052178 -0.12216762 -0.061409883
 0.57529545 -0.0 -0.0
 -0.692 -0.0 -0.0
 -0.6219224 0.09912506 -0.00385062
 -0.5535702 0.13184234 0.0013563164
 -0.4886267 0.15032779 0.008570658
 -0.42869088 0.16021246 0.01607772
 -0.37523863 0.16428371 0.022887375
 -0.3295861 0.16455783 0.028455595
 -0.29285738 0.16374964 0.032788027
 -0.2659569 0.16308533 0.035946827
 -0.249547 0.16265015 0.03786724
 -0.24403177 0.1624988 0.03851151
 -0.22767231 0.15180446 0.069601744
 -0.19543561 0.12899548 0.10606208
 -0.14904839 0.09363785 0.13827853
 -0.09257105 0.051673062 0.15880458
 -0.09257105 0.051673062 0.15880458
 -0.09257105 0.051673062 0.15880458
 -0.030717496 0.012313684 0.1665454
 0.029726833 -0.017602902 0.16606967
 0.0804314 -0.036123935 0.16304618
 0.11395514 -0.04561444 0.16064969
 0.1273272 -0.045977335 0.16054621
 0.13284244 -0.049349207 0.15954201
 0.14925233 -0.05924648 0.15613729
 0.17615283 -0.07494994 0.14923641
 0.21288152 -0.09508271 0.13728903
 0.25853407 -0.11934572 0.1206142
 0.31198633 -0.141459 0.09399977
 0.37192214 -0.15515403 0.05796754
 0.43686566 -0.15444101 0.016975544
 0.5052178 -0.13516502 -0.020652398
 0.57529545 -0.0 -0.0
zone i = 21, j = 10
 0.1273272 -0.1668963 0.005884457
 0.12117086 -0.16605695 0.017722568
 0.09820433 -0.16130297 0.043247502
 0.062190875 -0.14711444 0.0790338
 0.016142245 -0.12015193 0.115984984
 -0.03717403 -0.082719155 0.14507426
 -0.09376299 -0.042457074 0.16151284
 -0.14751339 -0.0069076503 0.16685708
 -0.19306788 0.018758234 0.16594315
 -0.22519954 0.031735707 0.16395684
 -0.24253315 0.031082213 0.16408198
 -0.24403177 0.013588269 0.16644625
 -0.22767231 -0.019285025 0.16588275
 -0.19543561 -0.061009236 0.15545698
 -0.14904839 -0.102575004 0.1317853
 -0.09257105 -0.13506427 0.098217316
 -0.030717496 -0.15458895 0.06317637
 0.029726833 -0.16338123 0.034576993
 0.0804314 -0.16622904 0.016028138
 0.11395514 -0.16688256 0.0062615713
 0.1273272 -0.1668963 0.005884457
 0.13547508 -0.3102744 0.029238071
 0.12942241 -0.30864254 0.043183718
 0.10611498 -0.30195868 0.07711032
 0.0697701 -0.2847102 0.12674846
 0.023936588 -0.25240833 0.18279798
 -0.028406935 -0.20513582 0.23461534
 -0.083553 -0.14930215 0.27355793
 -0.13557614 -0.0944014 0.29700747
 -0.17931911 -0.049565043 0.30768228
 -0.20998858 -0.021999247 0.3108715
 -0.22661951 -0.015142699 0.31128085
 -0.2295541 -0.033276327 0.3098673
 -0.215972 -0.073933214 0.30275226
 -0.18677048 -0.12882797 0.28377527
 -0.1431228 -0.1876632 0.24881233
 -0.08855392 -0.23907946 0.19991516
 -0.027447417 -0.27575502 0.14520405
 0.033674788 -0.29677626 0.095125735
 0.086125314 -0.30629018 0.057544645
 0.12127323 -0.30968964 0.034890886
 0.13547508 -0.3102744 0.029238071
 0.13906403 -0.44800472 0.05922755
 0.13314675 -0.44571117 0.074550055
 0.11052147 -0.43725547 0.1141218
 0.07539065 -0.41746673 0.17302509
 0.031567555 -0.3817885 0.24177195
 -0.017790139 -0.3296723 0.309083
 -0.06922382 -0.26677483 0.36475652
 -0.11727619 -0.20290472 0.4037893
 -0.1572144 -0.14872918 0.42672685
 -0.18487222 -0.113603644 0.43739042
 -0.19955494 -0.10278828 0.4400576
 -0.20245837 -0.120798394 0.43545824
 -0.19056892 -0.16464348 0.4208428
 -0.1641227 -0.2253232 0.3917213
 -0.12405382 -0.29182968 0.3450385
 -0.07344252 -0.3521065 0.28326163
 -0.016307566 -0.3977062 0.21458311
 0.041428413 -0.4261947 0.1502472
 0.09155703 -0.4407075 0.09996519
 0.1253926 -0.44667616 0.06853149
 0.13906403 -0.44800472 0.05922755
 0.13986522 -0.5761543 0.092295535
 0.13420564 -0.57337296 0.10823922
 0.11298489 -0.5636649 0.15084487
 0.08015029 -0.5424838 0.21490373
 0.03952567 -0.5057173 0.291071
 -0.005716103 -0.4527564 0.36808145
 -0.05238652 -0.38864106 0.435236
 -0.095597744 -0.3227352 0.48612168
 -0.13112512 -0.26590288 0.5193919
 -0.15541539 -0.2281708 0.5370385
 -0.16796164 -0.21572359 0.5421583
 -0.17035282 -0.23285344 0.5350248
 -0.15967831 -0.2764208 0.51387143
 -0.13584176 -0.3375288 0.47596908
 -0.099668905 -0.40522197 0.41984215
 -0.053872984 -0.46774927 0.34883073
 -0.002092105 -0.51661515 0.27125823
 0.050433412 -0.5487306 0.19841118
 0.096298836 -0.56631017 0.14058813
 0.12736952 -0.57417977 0.10387435
 0.13986522 -0.5761543 0.092295535
 0.13614021 -0.6904082 0.12946601
 0.13099088 -0.68726945 0.14520895
 0.112052366 -0.67675644 0.18821697
 0.082784496 -0.65517855 0.25331008
 0.046698883 -0.61922187 0.33164623
 0.006771208 -0.56854296 0.41253343
 -0.034131896 -0.5076085 0.48554975
 -0.071769975 -0.44484347 0.5436352
 -0.102474965 -0.39037356 0.5839806
 -0.12326097 -0.35379332 0.6068404
 -0.1336916 -0.34137905 0.6139098
 -0.13535023 -0.35685658 0.60504407
 -0.12571846 -0.39726484 0.57931477
 -0.1046175 -0.45451203 0.5355779
 -0.072839625 -0.51846755 0.47393706
 -0.032759666 -0.5784555 0.39851493
 0.012409928 -0.62658674 0.31751212
 0.05817073 -0.6595679 0.24165094
 0.098168746 -0.6787265 0.18098408
 0.1252936 -0.68791234 0.14213198
 0.13614021 -0.6904082 0.12946601
 0.12702869 -0.78582877 0.17516689
 0.122609176 -0.7824412 0.18972602
 0.1066445 -0.7715379 0.23008582
 0.08196609 -0.7505076 0.29145956
 0.051547125 -0.7171287 0.36597347
 0.017983787 -0.6715329 0.4441326
 -0.016253466 -0.61759007 0.5165198
 -0.047641087 -0.5623672 0.5761539
 -0.07312012 -0.5144699 0.6192987
 -0.09024975 -0.48216128 0.6447718
 -0.09861072 -0.4710568 0.6529286
 -0.0995363 -0.48413113 0.6432941
 -0.09105143 -0.5188654 0.6156208
 -0.07303115 -0.56852204 0.57008153
 -0.046240605 -0.62452745 0.50810987
 -0.0127038555 -0.67794657 0.43427953
 0.024854371 -0.7220167 0.3562332